 TITLE=" JinShan Lake "
                                                                   VARIABLES="X ","Y ","U ","V ","k "," ES ","VIS ","COD ","BOD ","TN ","TP ","NN3_N ","NO3_N ","ZB ","Z ","I ","J ","UV "        ,"UX "
 ZONE N=        2178  E=        1680  F=FEPOINT,ET=QUADRILATERAL 
         545604.08        2551880.82     0.00000     0.00000  0.0000000000  0.0000000000  0.0000000000        0.00000        0.00000        0.00000        0.00000        0.00000        0.00000       12.78127        0.00000        1.00000        1.00000       -2.00000        0.00000
         545610.63        2551879.56     0.00000     0.00000  0.0000000000  0.0000000000  0.0000000000        0.00000        0.00000        0.00000        0.00000        0.00000        0.00000       12.39548        0.00000        1.00000        2.00000       -2.00000        0.00001
         545623.73        2551877.04     0.00000     0.00000  0.0000000000  0.0000000000  0.0000000000        0.00000        0.00000        0.00000        0.00000        0.00000        0.00000       11.57863        0.00000        1.00000        3.00000       -2.00000        0.00001
         545636.82        2551874.53     0.00000     0.00000  0.0000000000  0.0000000000  0.0000000000        0.00000        0.00000        0.00000        0.00000        0.00000        0.00000       10.94562        0.00000        1.00000        4.00000       -2.00000        0.00001
         545649.92        2551872.01     0.00000     0.00000  0.0000000000  0.0000000000  0.0000000000        0.00000        0.00000        0.00000        0.00000        0.00000        0.00000       11.19061        0.00000        1.00000        5.00000       -2.00000        0.00001
         545663.01        2551869.50     0.00000     0.00000  0.0000000000  0.0000000000  0.0000000000        0.00000        0.00000        0.00000        0.00000        0.00000        0.00000       11.92918        0.00000        1.00000        6.00000       -2.00000        0.00001
         545676.11        2551866.98     0.00000     0.00000  0.0000000000  0.0000000000  0.0000000000        0.00000        0.00000        0.00000        0.00000        0.00000        0.00000       12.37019        0.00000        1.00000        7.00000       -2.00000        0.00001
         545689.21        2551864.46     0.00000     0.00000  0.0000000000  0.0000000000  0.0000000000        0.00000        0.00000        0.00000        0.00000        0.00000        0.00000       12.50770        0.00000        1.00000        8.00000       -2.00000        0.00001
         545695.75        2551863.21     0.00000     0.00000  0.0000000000  0.0000000000  0.0000000000        0.00000        0.00000        0.00000        0.00000        0.00000        0.00000       12.49583        0.00000        1.00000        9.00000       -2.00000        0.00000
         545597.52        2551862.59     0.00000     0.00000  0.0000000000  0.0000000000  0.0000000000        0.00000        0.00000        0.00000        0.00000        0.00000        0.00000       12.85414        0.00000        2.00000        1.00000       -2.00000        0.00000
         545605.17        2551861.48     0.00000     0.00000  0.0000000000  0.0000000000  0.0000000000        0.00000        0.00000        0.00000        0.00000        0.00000        0.00000       12.34527        0.00000        2.00000        2.00000       -2.00000        0.01622
         545620.25        2551859.68     0.00000     0.00000  0.0000000000  0.0000000000  0.0000000000        0.00000        0.00000        0.00000        0.00000        0.00000        0.00000       11.43098        0.00000        2.00000        3.00000       -2.00000        0.00173
         545634.85        2551858.48     0.00000     0.00000  0.0000000000  0.0000000000  0.0000000000        0.00000        0.00000        0.00000        0.00000        0.00000        0.00000       10.90603        0.00000        2.00000        4.00000       -2.00000        0.04039
         545649.05        2551857.57     0.00000     0.00000  0.0000000000  0.0000000000  0.0000000000        0.00000        0.00000        0.00000        0.00000        0.00000        0.00000       11.17299        0.00000        2.00000        5.00000       -2.00000        0.01254
         545662.89        2551856.89     0.00000     0.00000  0.0000000000  0.0000000000  0.0000000000        0.00000        0.00000        0.00000        0.00000        0.00000        0.00000       11.81824        0.00000        2.00000        6.00000       -2.00000        0.01466
         545676.40        2551856.56     0.00000     0.00000  0.0000000000  0.0000000000  0.0000000000        0.00000        0.00000        0.00000        0.00000        0.00000        0.00000       12.25394        0.00000        2.00000        7.00000       -2.00000        0.01139
         545689.56        2551857.08     0.00000     0.00000  0.0000000000  0.0000000000  0.0000000000        0.00000        0.00000        0.00000        0.00000        0.00000        0.00000       12.47698        0.00000        2.00000        8.00000       -2.00000        0.02275
         545696.05        2551857.63     0.00000     0.00000  0.0000000000  0.0000000000  0.0000000000        0.00000        0.00000        0.00000        0.00000        0.00000        0.00000       12.52306        0.00000        2.00000        9.00000       -2.00000        0.00000
         545586.24        2551825.57     0.00000     0.00000  0.0000000000  0.0000000000  0.0000000000        0.00000        0.00000        0.00000        0.00000        0.00000        0.00000       12.93472        0.00000        3.00000        1.00000       -2.00000        0.00000
         545595.81        2551825.10     0.00000     0.00000  0.0000000000  0.0000000000  0.0000000000        0.00000        0.00000        0.00000        0.00000        0.00000        0.00000       12.25248        0.00000        3.00000        2.00000       -2.00000        0.01591
         545614.26        2551825.17     0.00000     0.00000  0.0000000000  0.0000000000  0.0000000000        0.00000        0.00000        0.00000        0.00000        0.00000        0.00000       11.19833        0.00000        3.00000        3.00000       -2.00000        0.00398
         545631.44        2551826.71     0.00000     0.00000  0.0000000000  0.0000000000  0.0000000000        0.00000        0.00000        0.00000        0.00000        0.00000        0.00000       10.80025        0.00000        3.00000        4.00000       -2.00000        0.00305
         545647.52        2551828.98     0.00000     0.00000  0.0000000000  0.0000000000  0.0000000000        0.00000        0.00000        0.00000        0.00000        0.00000        0.00000       11.08607        0.00000        3.00000        5.00000       -2.00000        0.00037
         545662.64        2551831.92     0.00000     0.00000  0.0000000000  0.0000000000  0.0000000000        0.00000        0.00000        0.00000        0.00000        0.00000        0.00000       11.58775        0.00000        3.00000        6.00000       -2.00000        0.00399
         545676.85        2551835.99     0.00000     0.00000  0.0000000000  0.0000000000  0.0000000000        0.00000        0.00000        0.00000        0.00000        0.00000        0.00000       12.03747        0.00000        3.00000        7.00000       -2.00000        0.01858
         545690.19        2551842.45     0.00000     0.00000  0.0000000000  0.0000000000  0.0000000000        0.00000        0.00000        0.00000        0.00000        0.00000        0.00000       12.43283        0.00000        3.00000        8.00000       -2.00000        0.02000
         545696.65        2551846.48     0.00000     0.00000  0.0000000000  0.0000000000  0.0000000000        0.00000        0.00000        0.00000        0.00000        0.00000        0.00000       12.56817        0.00000        3.00000        9.00000       -2.00000        0.00000
         545579.79        2551787.79     0.00000     0.00000  0.0000000000  0.0000000000  0.0000000000        0.00000        0.00000        0.00000        0.00000        0.00000        0.00000       12.97121        0.00000        4.00000        1.00000       -2.00000        0.00000
         545590.40        2551788.63     0.00000     0.00000  0.0000000000  0.0000000000  0.0000000000        0.00000        0.00000        0.00000        0.00000        0.00000        0.00000       12.21057        0.00000        4.00000        2.00000       -2.00000        0.02115
         545610.70        2551791.47     0.00000     0.00000  0.0000000000  0.0000000000  0.0000000000        0.00000        0.00000        0.00000        0.00000        0.00000        0.00000       11.09740        0.00000        4.00000        3.00000       -2.00000        0.00749
         545629.35        2551795.95     0.00000     0.00000  0.0000000000  0.0000000000  0.0000000000        0.00000        0.00000        0.00000        0.00000        0.00000        0.00000       10.70925        0.00000        4.00000        4.00000       -2.00000        0.00278
         545646.62        2551801.37     0.00000     0.00000  0.0000000000  0.0000000000  0.0000000000        0.00000        0.00000        0.00000        0.00000        0.00000        0.00000       10.92779        0.00000        4.00000        5.00000       -2.00000        0.00808
         545662.58        2551807.89     0.00000     0.00000  0.0000000000  0.0000000000  0.0000000000        0.00000        0.00000        0.00000        0.00000        0.00000        0.00000       11.32605        0.00000        4.00000        6.00000       -2.00000        0.00912
         545677.25        2551816.43     0.00000     0.00000  0.0000000000  0.0000000000  0.0000000000        0.00000        0.00000        0.00000        0.00000        0.00000        0.00000       11.82638        0.00000        4.00000        7.00000       -2.00000        0.01763
         545690.76        2551828.35     0.00000     0.00000  0.0000000000  0.0000000000  0.0000000000        0.00000        0.00000        0.00000        0.00000        0.00000        0.00000       12.40963        0.00000        4.00000        8.00000       -2.00000        0.01716
         545697.25        2551835.33     0.00000     0.00000  0.0000000000  0.0000000000  0.0000000000        0.00000        0.00000        0.00000        0.00000        0.00000        0.00000       12.63667        0.00000        4.00000        9.00000       -2.00000        0.00000
         545580.34        2551749.55     0.00000     0.00000  0.0000000000  0.0000000000  0.0000000000        0.00000        0.00000        0.00000        0.00000        0.00000        0.00000       12.95684        0.00000        5.00000        1.00000       -2.00000        0.00000
         545590.35        2551752.76     0.00000     0.00000  0.0000000000  0.0000000000  0.0000000000        0.00000        0.00000        0.00000        0.00000        0.00000        0.00000       12.16997        0.00000        5.00000        2.00000       -2.00000        0.02697
         545610.02        2551759.52     0.00000     0.00000  0.0000000000  0.0000000000  0.0000000000        0.00000        0.00000        0.00000        0.00000        0.00000        0.00000       11.01117        0.00000        5.00000        3.00000       -2.00000        0.00370
         545628.90        2551766.99     0.00000     0.00000  0.0000000000  0.0000000000  0.0000000000        0.00000        0.00000        0.00000        0.00000        0.00000        0.00000       10.57697        0.00000        5.00000        4.00000       -2.00000        0.00415
         545646.68        2551775.42     0.00000     0.00000  0.0000000000  0.0000000000  0.0000000000        0.00000        0.00000        0.00000        0.00000        0.00000        0.00000       10.73983        0.00000        5.00000        5.00000       -2.00000        0.00137
         545663.13        2551785.46     0.00000     0.00000  0.0000000000  0.0000000000  0.0000000000        0.00000        0.00000        0.00000        0.00000        0.00000        0.00000       11.09182        0.00000        5.00000        6.00000       -2.00000        0.00381
         545678.13        2551798.26     0.00000     0.00000  0.0000000000  0.0000000000  0.0000000000        0.00000        0.00000        0.00000        0.00000        0.00000        0.00000       11.63512        0.00000        5.00000        7.00000       -2.00000        0.00630
         545691.56        2551814.86     0.00000     0.00000  0.0000000000  0.0000000000  0.0000000000        0.00000        0.00000        0.00000        0.00000        0.00000        0.00000       12.38069        0.00000        5.00000        8.00000       -2.00000        0.00035
         545697.85        2551824.18     0.00000     0.00000  0.0000000000  0.0000000000  0.0000000000        0.00000        0.00000        0.00000        0.00000        0.00000        0.00000       12.70981        0.00000        5.00000        9.00000       -2.00000        0.00000
         545584.61        2551716.14     0.00000     0.00000  0.0000000000  0.0000000000  0.0000000000        0.00000        0.00000        0.00000        0.00000        0.00000        0.00000       12.90791        0.00000        6.00000        1.00000       -2.00000        0.00000
         545593.36        2551721.04     0.00000     0.00000  0.0000000000  0.0000000000  0.0000000000        0.00000        0.00000        0.00000        0.00000        0.00000        0.00000       12.11231        0.00000        6.00000        2.00000       -2.00000        0.00502
         545611.40        2551730.67     0.00000     0.00000  0.0000000000  0.0000000000  0.0000000000        0.00000        0.00000        0.00000        0.00000        0.00000        0.00000       10.85854        0.00000        6.00000        3.00000       -2.00000        0.00196
         545629.88        2551740.48     0.00000     0.00000  0.0000000000  0.0000000000  0.0000000000        0.00000        0.00000        0.00000        0.00000        0.00000        0.00000       10.35498        0.00000        6.00000        4.00000       -2.00000        0.01619
         545647.84        2551751.31     0.00000     0.00000  0.0000000000  0.0000000000  0.0000000000        0.00000        0.00000        0.00000        0.00000        0.00000        0.00000       10.56494        0.00000        6.00000        5.00000       -2.00000        0.00645
         545664.68        2551763.83     0.00000     0.00000  0.0000000000  0.0000000000  0.0000000000        0.00000        0.00000        0.00000        0.00000        0.00000        0.00000       10.97344        0.00000        6.00000        6.00000       -2.00000        0.00319
         545680.03        2551778.52     0.00000     0.00000  0.0000000000  0.0000000000  0.0000000000        0.00000        0.00000        0.00000        0.00000        0.00000        0.00000       11.58445        0.00000        6.00000        7.00000       -2.00000        0.00121
         545693.14        2551794.80     0.00000     0.00000  0.0000000000  0.0000000000  0.0000000000        0.00000        0.00000        0.00000        0.00000        0.00000        0.00000       12.44054        0.00000        6.00000        8.00000       -2.00000        0.02548
         545698.98        2551803.15     0.00000     0.00000  0.0000000000  0.0000000000  0.0000000000        0.00000        0.00000        0.00000        0.00000        0.00000        0.00000       12.83878        0.00000        6.00000        9.00000       -2.00000        0.00000
         545588.55        2551687.80     0.00000     0.00000  0.0000000000  0.0000000000  0.0000000000        0.00000        0.00000        0.00000        0.00000        0.00000        0.00000       12.89637        0.00000        7.00000        1.00000       -2.00000        0.00000
         545596.72        2551692.96     0.00000     0.00000  0.0000000000  0.0000000000  0.0000000000        0.00000        0.00000        0.00000        0.00000        0.00000        0.00000       12.11835        0.00000        7.00000        2.00000       -2.00000        0.02635
         545613.89        2551703.53     0.00000     0.00000  0.0000000000  0.0000000000  0.0000000000        0.00000        0.00000        0.00000        0.00000        0.00000        0.00000       10.77254        0.00000        7.00000        3.00000       -2.00000        0.00095
         545632.07        2551714.82     0.00000     0.00000  0.0000000000  0.0000000000  0.0000000000        0.00000        0.00000        0.00000        0.00000        0.00000        0.00000       10.16294        0.00000        7.00000        4.00000       -2.00000        0.00819
         545650.16        2551727.14     0.00000     0.00000  0.0000000000  0.0000000000  0.0000000000        0.00000        0.00000        0.00000        0.00000        0.00000        0.00000       10.43070        0.00000        7.00000        5.00000       -2.00000        0.01809
         545667.38        2551740.57     0.00000     0.00000  0.0000000000  0.0000000000  0.0000000000        0.00000        0.00000        0.00000        0.00000        0.00000        0.00000       10.94308        0.00000        7.00000        6.00000       -2.00000        0.00300
         545682.99        2551754.48     0.00000     0.00000  0.0000000000  0.0000000000  0.0000000000        0.00000        0.00000        0.00000        0.00000        0.00000        0.00000       11.65473        0.00000        7.00000        7.00000       -2.00000        0.00601
         545695.47        2551766.84     0.00000     0.00000  0.0000000000  0.0000000000  0.0000000000        0.00000        0.00000        0.00000        0.00000        0.00000        0.00000       12.55775        0.00000        7.00000        8.00000       -2.00000        0.03895
         545700.64        2551772.25     0.00000     0.00000  0.0000000000  0.0000000000  0.0000000000        0.00000        0.00000        0.00000        0.00000        0.00000        0.00000       12.95195        0.00000        7.00000        9.00000       -2.00000        0.00000
         545592.89        2551659.53     0.00000     0.00000  0.0000000000  0.0000000000  0.0000000000        0.00000        0.00000        0.00000        0.00000        0.00000        0.00000       12.88392        0.00000        8.00000        1.00000       -2.00000        0.00000
         545600.73        2551664.85     0.00000     0.00000  0.0000000000  0.0000000000  0.0000000000        0.00000        0.00000        0.00000        0.00000        0.00000        0.00000       12.12660        0.00000        8.00000        2.00000       -2.00000        0.03369
         545617.37        2551676.01     0.00000     0.00000  0.0000000000  0.0000000000  0.0000000000        0.00000        0.00000        0.00000        0.00000        0.00000        0.00000       10.69900        0.00000        8.00000        3.00000       -2.00000        0.00111
         545635.34        2551688.20     0.00000     0.00000  0.0000000000  0.0000000000  0.0000000000        0.00000        0.00000        0.00000        0.00000        0.00000        0.00000        9.98183        0.00000        8.00000        4.00000       -2.00000        0.00669
         545653.54        2551701.28     0.00000     0.00000  0.0000000000  0.0000000000  0.0000000000        0.00000        0.00000        0.00000        0.00000        0.00000        0.00000       10.29360        0.00000        8.00000        5.00000       -2.00000        0.00089
         545670.99        2551714.70     0.00000     0.00000  0.0000000000  0.0000000000  0.0000000000        0.00000        0.00000        0.00000        0.00000        0.00000        0.00000       10.95076        0.00000        8.00000        6.00000       -2.00000        0.00348
         545686.56        2551727.35     0.00000     0.00000  0.0000000000  0.0000000000  0.0000000000        0.00000        0.00000        0.00000        0.00000        0.00000        0.00000       11.79144        0.00000        8.00000        7.00000       -2.00000        0.01812
         545698.01        2551737.32     0.00000     0.00000  0.0000000000  0.0000000000  0.0000000000        0.00000        0.00000        0.00000        0.00000        0.00000        0.00000       12.64539        0.00000        8.00000        8.00000       -2.00000        0.01889
         545702.30        2551741.34     0.00000     0.00000  0.0000000000  0.0000000000  0.0000000000        0.00000        0.00000        0.00000        0.00000        0.00000        0.00000       12.95717        0.00000        8.00000        9.00000       -2.00000        0.00000
         545597.97        2551631.38     0.00000     0.00000  0.0000000000  0.0000000000  0.0000000000        0.00000        0.00000        0.00000        0.00000        0.00000        0.00000       12.87410        0.00000        9.00000        1.00000       -2.00000        0.00000
         545605.52        2551636.75     0.00000     0.00000  0.0000000000  0.0000000000  0.0000000000        0.00000        0.00000        0.00000        0.00000        0.00000        0.00000       12.06661        0.00000        9.00000        2.00000       -2.00000        0.02505
         545621.70        2551648.18     0.00000     0.00000  0.0000000000  0.0000000000  0.0000000000        0.00000        0.00000        0.00000        0.00000        0.00000        0.00000       10.55714        0.00000        9.00000        3.00000       -2.00000        0.00812
         545639.48        2551660.81     0.00000     0.00000  0.0000000000  0.0000000000  0.0000000000        0.00000        0.00000        0.00000        0.00000        0.00000        0.00000        9.81246        0.00000        9.00000        4.00000       -2.00000        0.00003
         545657.72        2551674.08     0.00000     0.00000  0.0000000000  0.0000000000  0.0000000000        0.00000        0.00000        0.00000        0.00000        0.00000        0.00000       10.17569        0.00000        9.00000        5.00000       -2.00000        0.00101
         545675.23        2551687.13     0.00000     0.00000  0.0000000000  0.0000000000  0.0000000000        0.00000        0.00000        0.00000        0.00000        0.00000        0.00000       11.02988        0.00000        9.00000        6.00000       -2.00000        0.00436
         545690.55        2551698.72     0.00000     0.00000  0.0000000000  0.0000000000  0.0000000000        0.00000        0.00000        0.00000        0.00000        0.00000        0.00000       12.00497        0.00000        9.00000        7.00000       -2.00000        0.03224
         545700.71        2551707.20     0.00000     0.00000  0.0000000000  0.0000000000  0.0000000000        0.00000        0.00000        0.00000        0.00000        0.00000        0.00000       12.74316        0.00000        9.00000        8.00000       -2.00000        0.01600
         545703.96        2551710.43     0.00000     0.00000  0.0000000000  0.0000000000  0.0000000000        0.00000        0.00000        0.00000        0.00000        0.00000        0.00000       12.95451        0.00000        9.00000        9.00000       -2.00000        0.00000
         545603.42        2551603.30     0.00000     0.00000  0.0000000000  0.0000000000  0.0000000000        0.00000        0.00000        0.00000        0.00000        0.00000        0.00000       12.87341        0.00000       10.00000        1.00000       -2.00000        0.00000
         545610.82        2551608.65     0.00000     0.00000  0.0000000000  0.0000000000  0.0000000000        0.00000        0.00000        0.00000        0.00000        0.00000        0.00000       12.02877        0.00000       10.00000        2.00000       -2.00000        0.02379
         545626.72        2551620.13     0.00000     0.00000  0.0000000000  0.0000000000  0.0000000000        0.00000        0.00000        0.00000        0.00000        0.00000        0.00000       10.49215        0.00000       10.00000        3.00000       -2.00000        0.01385
         545644.32        2551632.82    -0.00019    -0.00014  0.0000000094  0.0000000000  0.0000015198       28.84615        5.76485        0.12857        1.48585        1.47887        1.47887        9.72257       10.00333       10.00000        4.00000       -2.00000        0.00111
         545662.51        2551645.98     0.00000     0.00000  0.0000000000  0.0000000000  0.0000000000        0.00000        0.00000        0.00000        0.00000        0.00000        0.00000       10.07769        0.00000       10.00000        5.00000       -2.00000        0.00021
         545679.94        2551658.57     0.00000     0.00000  0.0000000000  0.0000000000  0.0000000000        0.00000        0.00000        0.00000        0.00000        0.00000        0.00000       11.06331        0.00000       10.00000        6.00000       -2.00000        0.00595
         545694.92        2551669.35     0.00000     0.00000  0.0000000000  0.0000000000  0.0000000000        0.00000        0.00000        0.00000        0.00000        0.00000        0.00000       12.13380        0.00000       10.00000        7.00000       -2.00000        0.03990
         545703.59        2551676.83     0.00000     0.00000  0.0000000000  0.0000000000  0.0000000000        0.00000        0.00000        0.00000        0.00000        0.00000        0.00000       12.78657        0.00000       10.00000        8.00000       -2.00000        0.04314
         545705.62        2551679.52     0.00000     0.00000  0.0000000000  0.0000000000  0.0000000000        0.00000        0.00000        0.00000        0.00000        0.00000        0.00000       12.92176        0.00000       10.00000        9.00000       -2.00000        0.00000
         545609.56        2551575.37     0.00000     0.00000  0.0000000000  0.0000000000  0.0000000000        0.00000        0.00000        0.00000        0.00000        0.00000        0.00000       12.89851        0.00000       11.00000        1.00000       -2.00000        0.00000
         545616.79        2551580.63     0.00000     0.00000  0.0000000000  0.0000000000  0.0000000000        0.00000        0.00000        0.00000        0.00000        0.00000        0.00000       12.04910        0.00000       11.00000        2.00000       -2.00000        0.02590
         545632.38        2551591.94     0.00000     0.00000  0.0000000094  0.0000000001  0.0000015198       28.84615        5.76485        0.12857        1.48585        1.47887        1.47887       10.50945       10.00333       11.00000        3.00000       -2.00000        0.01481
         545649.74        2551604.47    -0.00051     0.00024  0.0000000081  0.0000000000  0.0000017570       28.84615        5.76485        0.12857        1.48585        1.47887        1.47887        9.67952       10.00333       11.00000        4.00000        2.00000        0.00005
         545667.79        2551617.34    -0.00001     0.00008  0.0000000094  0.0000000000  0.0000015198       28.84615        5.76485        0.12857        1.48585        1.47887        1.47887        9.92634       10.00333       11.00000        5.00000       -2.00000        0.00055
         545685.11        2551629.47     0.00000     0.00000  0.0000000000  0.0000000000  0.0000000000        0.00000        0.00000        0.00000        0.00000        0.00000        0.00000       10.92632        0.00000       11.00000        6.00000       -2.00000        0.00427
         545699.78        2551639.66     0.00000     0.00000  0.0000000000  0.0000000000  0.0000000000        0.00000        0.00000        0.00000        0.00000        0.00000        0.00000       12.10676        0.00000       11.00000        7.00000       -2.00000        0.03557
         545707.52        2551646.48     0.00000     0.00000  0.0000000000  0.0000000000  0.0000000000        0.00000        0.00000        0.00000        0.00000        0.00000        0.00000       12.77342        0.00000       11.00000        8.00000       -2.00000        0.05776
         545708.86        2551648.84     0.00000     0.00000  0.0000000000  0.0000000000  0.0000000000        0.00000        0.00000        0.00000        0.00000        0.00000        0.00000       12.87309        0.00000       11.00000        9.00000       -2.00000        0.00000
         545616.45        2551547.60     0.00000     0.00000  0.0000000000  0.0000000000  0.0000000000        0.00000        0.00000        0.00000        0.00000        0.00000        0.00000       12.89347        0.00000       12.00000        1.00000       -2.00000        0.00000
         545623.42        2551552.70     0.00000     0.00000  0.0000000000  0.0000000000  0.0000000000        0.00000        0.00000        0.00000        0.00000        0.00000        0.00000       12.12877        0.00000       12.00000        2.00000       -2.00000        0.03035
         545638.55        2551563.69     0.00000     0.00000  0.0000000112  0.0000000001  0.0000015198       28.84615        5.76485        0.12857        1.48585        1.47887        1.47887       10.62206       10.00333       12.00000        3.00000       -2.00000        0.00072
         545655.60        2551575.90    -0.00001    -0.00062  0.0000000099  0.0000000000  0.0000018421       28.84615        5.76485        0.12857        1.48585        1.47887        1.47887        9.66180       10.00333       12.00000        4.00000        2.00000        0.00006
         545673.51        2551588.40     0.00034     0.00023  0.0000000170  0.0000000000  0.0000015198       28.84615        5.76485        0.12857        1.48585        1.47887        1.47887        9.74065        9.96631       12.00000        5.00000       -2.00000        0.00343