 TITLE=" JinShan Lake "
                                                                                                                                      VARIABLES="X ","Y ","U ","V ","k "," ES ","VIS ",  "ZB ","Z ","M "
 ZONE N=        2178  E=        1680  F=FEPOINT,ET=QUADRILATERAL 
         545604.08        2551880.82     0.00000000000     0.00000000000 0.00000000000 0.00000000000 0.00000000000  12.78127  11.99000  -2.00000
         545610.63        2551879.56     0.00000000000     0.00000000000 0.00000000000 0.00000000000 0.00000000000  12.39548   0.00000  -2.00000
         545623.73        2551877.04     0.00000000000     0.00000000000 0.00000000000 0.00000000000 0.00000000000  11.57863  11.99098   1.00000
         545636.82        2551874.53     0.00000000000     0.00000000000 0.00000000000 0.00000000000 0.00000000000  10.94562  11.99098   1.00000
         545649.92        2551872.01     0.00000000000     0.00000000000 0.00000000000 0.00000000000 0.00000000000  11.19061  11.99098   1.00000
         545663.01        2551869.50     0.00000000000     0.00000000000 0.00000000000 0.00000000000 0.00000000000  11.92918  11.99098   1.00000
         545676.11        2551866.98     0.00000000000     0.00000000000 0.00000000000 0.00000000000 0.00000000000  12.37019   0.00000  -2.00000
         545689.21        2551864.46     0.00000000000     0.00000000000 0.00000000000 0.00000000000 0.00000000000  12.50770   0.00000  -2.00000
         545695.75        2551863.21     0.00000000000     0.00000000000 0.00000000000 0.00000000000 0.00000000000  12.49583  11.99000  -2.00000
         545597.52        2551862.59     0.00000000000     0.00000000000 0.00000000000 0.00000000000 0.00000100000  12.85414  12.25758  -2.00000
         545605.17        2551861.48     0.00000000000     0.00000000000 0.00000000000 0.00000000000 0.00000100000  12.34527  11.99098  -2.00000
         545620.25        2551859.68    -0.00340464468    -0.24842940282 0.00124226363 0.00011918121 0.00116635606  11.43098  12.25758   2.00000
         545634.85        2551858.48     0.01473832856    -0.47835093513 0.00239288960 0.00019486510 0.00264554859  10.90603  12.25758   2.00000
         545649.05        2551857.57     0.02142334818    -0.35624306085 0.00178443319 0.00015637586 0.00183361243  11.17299  12.25758   2.00000
         545662.89        2551856.89     0.01043545996    -0.10646016117 0.00053485195 0.00006334750 0.00040741840  11.81824  12.25758   2.00000
         545676.40        2551856.56     0.00000000000     0.00000000000 0.00000000000 0.00000000000 0.00000100000  12.25394  11.99098  -2.00000
         545689.56        2551857.08     0.00000000000     0.00000000000 0.00000000000 0.00000000000 0.00000100000  12.47698   0.00000  -2.00000
         545696.05        2551857.63     0.00000000000     0.00000000000 0.00000000000 0.00000000000 0.00000100000  12.52306  12.25758  -2.00000
         545586.24        2551825.57     0.00000000000     0.00000000000 0.00000000000 0.00000000000 0.00000100000  12.93472  12.25660  -2.00000
         545595.81        2551825.10     0.00000000000     0.00000000000 0.00000000000 0.00000000000 0.00000100000  12.25248  11.99098  -2.00000
         545614.26        2551825.17     0.02857660760    -0.22371074203 0.00112764263 0.00008050852 0.00142247182  11.19833  12.25660   2.00000
         545631.44        2551826.71     0.06745545039    -0.33855929904 0.00172606946 0.00011079074 0.00242120240  10.80025  12.25660   2.00000
         545647.52        2551828.98     0.06469019987    -0.24973299814 0.00128987780 0.00008904787 0.00168255567  11.08607  12.25660   2.00000
         545662.64        2551831.92     0.04014553781    -0.11554997387 0.00061162611 0.00005088417 0.00066264237  11.58775  12.25660   2.00000
         545676.85        2551835.99     0.01286915700    -0.02444986511 0.00013814947 0.00001667217 0.00010402028  12.03747  12.25660   2.00000
         545690.19        2551842.45     0.00000000000     0.00000000000 0.00000000000 0.00000000000 0.00000100000  12.43283  11.99098  -2.00000
         545696.65        2551846.48     0.00000000000     0.00000000000 0.00000000000 0.00000000000 0.00000100000  12.56817  12.25660  -2.00000
         545579.79        2551787.79     0.00000000000     0.00000000000 0.00000000000 0.00000000000 0.00000100000  12.97121  12.23609  -2.00000
         545590.40        2551788.63     0.00017425755    -0.00112797471 0.00000570678 0.00000120196 0.00000343653  12.21057  11.99098  -2.00000
         545610.70        2551791.47     0.04867414010    -0.17392510726 0.00090303811 0.00005362116 0.00136970676  11.09740  12.23609   2.00000
         545629.35        2551795.95     0.08899055485    -0.25177981888 0.00133521902 0.00007189816 0.00223263784  10.70925  12.23609   2.00000
         545646.62        2551801.37     0.08745197269    -0.19896867713 0.00108669660 0.00006160789 0.00172610601  10.92779  12.23609   2.00000
         545662.58        2551807.89     0.06821442349    -0.11528121907 0.00066975679 0.00004285455 0.00094304086  11.32605  12.23609   2.00000
         545677.25        2551816.43     0.03045709769    -0.03476923669 0.00023111331 0.00001929463 0.00025013430  11.82638  12.23609   2.00000
         545690.76        2551828.35     0.00000000000     0.00000000000 0.00000000000 0.00000000000 0.00000100000  12.40963  11.99098  -2.00000
         545697.25        2551835.33     0.00000000000     0.00000000000 0.00000000000 0.00000000000 0.00000100000  12.63667  12.23609  -2.00000
         545580.34        2551749.55     0.00000000000     0.00000000000 0.00000000000 0.00000000000 0.00000100000  12.95684  11.99098  -2.00000
         545590.35        2551752.76     0.00110311428    -0.00212756785 0.00001198270 0.00000162765 0.00000893458  12.16997  12.22730   2.00000
         545610.02        2551759.52     0.05852928451    -0.12793077801 0.00070341951 0.00003451620 0.00129113690  11.01117  12.22730   2.00000
         545628.90        2551766.99     0.09450087260    -0.18905927362 0.00105680913 0.00004683886 0.00214695248  10.57697  12.22730   2.00000
         545646.68        2551775.42     0.09552827773    -0.15728315407 0.00092010381 0.00004221702 0.00180575522  10.73983  12.22730   2.00000
         545663.13        2551785.46     0.08106798160    -0.09955193619 0.00064192299 0.00003222739 0.00115172036  11.09182  12.22730   2.00000
         545678.13        2551798.26     0.04080938688    -0.03520466540 0.00026947979 0.00001680794 0.00038982528  11.63512  12.22730   2.00000
         545691.56        2551814.86     0.00000000000     0.00000000000 0.00000000000 0.00000000000 0.00000100000  12.38069  11.99098  -2.00000
         545697.85        2551824.18     0.00000000000     0.00000000000 0.00000000000 0.00000000000 0.00000100000  12.70981  12.22730  -2.00000
         545584.61        2551716.14     0.00000000000     0.00000000000 0.00000000000 0.00000000000 0.00000100000  12.90791  11.99098  -2.00000
         545593.36        2551721.04     0.00219269243    -0.00361871515 0.00002115597 0.00000198833 0.00002124888  12.11231  12.22242   2.00000
         545611.40        2551730.67     0.05949019666    -0.10564980410 0.00060623766 0.00002462460 0.00134420257  10.85854  12.22242   2.00000
         545629.88        2551740.48     0.09537713531    -0.15775126297 0.00092171386 0.00003371558 0.00226872931  10.35498  12.22242   2.00000
         545647.84        2551751.31     0.09068142284    -0.12845773392 0.00078620145 0.00002992507 0.00185991894  10.56494  12.22242   2.00000
         545664.68        2551763.83     0.07020861394    -0.08183230950 0.00053911446 0.00002255011 0.00116094275  10.97344  12.22242   2.00000
         545680.03        2551778.52     0.03150148657    -0.03075736836 0.00022013401 0.00001151889 0.00037958946  11.58445  12.22242   2.00000
         545693.14        2551794.80     0.00000000000     0.00000000000 0.00000000000 0.00000000000 0.00000100000  12.44054  11.99098  -2.00000
         545698.98        2551803.15     0.00000000000     0.00000000000 0.00000000000 0.00000000000 0.00000100000  12.83878  12.22242  -2.00000
         545588.55        2551687.80     0.00000000000     0.00000000000 0.00000000000 0.00000000000 0.00000100000  12.89637  11.99098  -2.00000
         545596.72        2551692.96     0.00173109460    -0.00262708967 0.00001573077 0.00000138801 0.00001703386  12.11835  12.21949   2.00000
         545613.89        2551703.53     0.05885183826    -0.09205528760 0.00054629924 0.00001985516 0.00135372200  10.77254  12.21949   2.00000
         545632.07        2551714.82     0.09770462223    -0.14469887704 0.00087298277 0.00002821960 0.00243145567  10.16294  12.21949   2.00000
         545650.16        2551727.14     0.08646012863    -0.11635956056 0.00072482585 0.00002454558 0.00192727767  10.43070  12.21949   2.00000
         545667.38        2551740.57     0.05859992792    -0.07148808476 0.00046218225 0.00001751506 0.00109857101  10.94308  12.21949   2.00000
         545682.99        2551754.48     0.02055938288    -0.02342357443 0.00015583260 0.00000775005 0.00028296737  11.65473  12.21949   2.00000
         545695.47        2551766.84     0.00000000000     0.00000000000 0.00000000000 0.00000000000 0.00000100000  12.55775  11.99098  -2.00000
         545700.64        2551772.25     0.00000000000     0.00000000000 0.00000000000 0.00000000000 0.00000100000  12.95195  12.21949  -2.00000
         545592.89        2551659.53     0.00000000000     0.00000000000 0.00000000000 0.00000000000 0.00000100000  12.88392  11.99098  -2.00000
         545600.73        2551664.85     0.00136670240    -0.00195983255 0.00001194657 0.00000101078 0.00001369535  12.12660  12.21852   2.00000
         545617.37        2551676.01     0.05708568033    -0.08284920616 0.00050305977 0.00001670731 0.00136416737  10.69900  12.21852   2.00000
         545635.34        2551688.20     0.09766400198    -0.13726739410 0.00084232704 0.00002459224 0.00259749908   9.98183  12.21852   2.00000
         545653.54        2551701.28     0.08235924921    -0.11061438301 0.00068953946 0.00002116453 0.00202276956  10.29360  12.21852   2.00000
         545670.99        2551714.70     0.04829115112    -0.06255155840 0.00039511810 0.00001393924 0.00100892040  10.95076  12.21852   2.00000
         545686.56        2551727.35     0.01144430775    -0.01456595053 0.00009262007 0.00000469607 0.00016537122  11.79144  12.21852   2.00000
         545698.01        2551737.32     0.00000000000     0.00000000000 0.00000000000 0.00000000000 0.00000100000  12.64539  11.99098  -2.00000
         545702.30        2551741.34     0.00000000000     0.00000000000 0.00000000000 0.00000000000 0.00000100000  12.95717  12.21852  -2.00000
         545597.97        2551631.38     0.00000000000     0.00000000000 0.00000000000 0.00000000000 0.00000100000  12.87410  11.99098  -2.00000
         545605.52        2551636.75     0.00239222902    -0.00329742806 0.00002036897 0.00000137044 0.00002822724  12.06661  12.21754   2.00000
         545621.70        2551648.18     0.05799161321    -0.08105679508 0.00049832797 0.00001507453 0.00148352008  10.55714  12.21754   2.00000
         545639.48        2551660.81     0.09576416409    -0.13232425153 0.00081670805 0.00002183501 0.00275017856   9.81246  12.21754   2.00000
         545657.72        2551674.08     0.07757473928    -0.10594275372 0.00065653839 0.00001853745 0.00209361457  10.17569  12.21754   2.00000
         545675.23        2551687.13     0.03771556193    -0.05140402712 0.00031878039 0.00001078275 0.00084911719  11.02988  12.21754   2.00000
         545690.55        2551698.72     0.00380389676    -0.00518583738 0.00003215686 0.00000193012 0.00004919256  12.00497  12.21754   2.00000
         545700.71        2551707.20     0.00000000000     0.00000000000 0.00000000000 0.00000000000 0.00000100000  12.74316  11.99098  -2.00000
         545703.96        2551710.43     0.00000000000     0.00000000000 0.00000000000 0.00000000000 0.00000100000  12.95451  12.21754  -2.00000
         545603.42        2551603.30     0.00000000000     0.00000000000 0.00000000000 0.00000000000 0.00000100000  12.87341  11.99098  -2.00000
         545610.82        2551608.65     0.00297440233    -0.00412033571 0.00002540878 0.00000153454 0.00003883985  12.02877  12.21656   2.00000
         545626.72        2551620.13     0.05729318854    -0.07914771980 0.00048854044 0.00001408936 0.00152547944  10.49215  12.21656   2.00000
         545644.32        2551632.82     0.09357814258    -0.12954271539 0.00079903352 0.00002037678 0.00282078305   9.72257  12.21656   2.00000
         545662.51        2551645.98     0.07580064449    -0.10587412664 0.00065105813 0.00001747545 0.00218387549  10.07769  12.21656   2.00000
         545679.94        2551658.57     0.03293381036    -0.04670008981 0.00028572426 0.00000942281 0.00078066889  11.06331  12.21656   2.00000
         545694.92        2551669.35     0.00098365111    -0.00139200341 0.00000852239 0.00000067635 0.00001065059  12.13380  12.21656   2.00000
         545703.59        2551676.83     0.00000000000     0.00000000000 0.00000000000 0.00000000000 0.00000100000  12.78657  11.99098  -2.00000
         545705.62        2551679.52     0.00000000000     0.00000000000 0.00000000000 0.00000000000 0.00000100000  12.92176  12.21656  -2.00000
         545609.56        2551575.37     0.00000000000     0.00000000000 0.00000000000 0.00000000000 0.00000100000  12.89851  11.99098  -2.00000
         545616.79        2551580.63     0.00239460186    -0.00326493579 0.00002024470 0.00000123101 0.00003094006  12.04910  12.21559   2.00000
         545632.38        2551591.94     0.05293374730    -0.07293171039 0.00045058339 0.00001261342 0.00144952421  10.50945  12.21559   2.00000
         545649.74        2551604.47     0.08886931655    -0.12438802260 0.00076436468 0.00001874876 0.00280545285   9.67952  12.21559   2.00000
         545667.79        2551617.34     0.07635517561    -0.10934342253 0.00066682262 0.00001692411 0.00236545821   9.92634  12.21559   2.00000
         545685.11        2551629.47     0.03493487474    -0.05125378637 0.00031013690 0.00000953168 0.00090910157  10.92632  12.21559   2.00000
         545699.78        2551639.66     0.00129961601    -0.00189396669 0.00001148489 0.00000080469 0.00001573434  12.10676  12.21559   2.00000
         545707.52        2551646.48     0.00000000000     0.00000000000 0.00000000000 0.00000000000 0.00000100000  12.77342  11.99098  -2.00000
         545708.86        2551648.84     0.00000000000     0.00000000000 0.00000000000 0.00000000000 0.00000100000  12.87309  12.21559  -2.00000
         545616.45        2551547.60     0.00000000000     0.00000000000 0.00000000000 0.00000000000 0.00000100000  12.89347  11.99098  -2.00000
         545623.42        2551552.70     0.00091813521    -0.00125995603 0.00000779497 0.00000057047 0.00001056925  12.12877  12.21461   2.00000
         545638.55        2551563.69     0.04479943078    -0.06209071193 0.00038282650 0.00001058258 0.00124727492  10.62206  12.21461   2.00000
         545655.60        2551575.90     0.08251595778    -0.11756696382 0.00071817257 0.00001696315 0.00273732667   9.66180  12.21461   2.00000
         545673.51        2551588.40     0.07733546310    -0.11399164975 0.00068874649 0.00001643917 0.00259789891   9.74065  12.21461   2.00000
         545690.75        2551600.12     0.04018922282    -0.06112298875 0.00036575925 0.00001022673 0.00117820944  10.67561  12.21461   2.00000
         545705.32        2551609.89     0.00376844797    -0.00572306047 0.00003426172 0.00000173168 0.00006197383  11.95404  12.21461   2.00000
         545713.21        2551616.34     0.00000000000     0.00000000000 0.00000000000 0.00000000000 0.00000100000  12.71602  11.99098  -2.00000
         545714.76        2551618.54     0.00000000000     0.00000000000 0.00000000000 0.00000000000 0.00000100000  12.83743  12.21461  -2.00000
         545623.81        2551519.96     0.00000000000     0.00000000000 0.00000000000 0.00000000000 0.00000100000  12.78538  12.21363  -2.00000
         545630.48        2551524.85     0.00036178792    -0.00049085233 0.00000304888 0.00000026631 0.00000412969  12.16865  11.99098  -2.00000
         545645.08        2551535.43     0.03543509108    -0.04950942682 0.00030441866 0.00000841113 0.00099246842  10.79283  12.21363   2.00000
         545661.79        2551547.22     0.07350642879    -0.10729339984 0.00065028970 0.00001486192 0.00256166048   9.70309  12.21363   2.00000
         545679.59        2551559.33     0.07746564127    -0.11827393255 0.00070692375 0.00001582245 0.00284340903   9.54082  12.21363   2.00000
         545696.91        2551570.68     0.04609060580    -0.07311925323 0.00043216805 0.00001093925 0.00153745703  10.36575  12.21363   2.00000
         545711.63        2551580.15     0.00764091090    -0.01221371801 0.00007203444 0.00000285376 0.00016458850  11.73160  12.21363   2.00000
         545719.91        2551586.33     0.00000000000     0.00000000000 0.00000000000 0.00000000000 0.00000100000  12.61896  11.99098  -2.00000
         545721.76        2551588.39     0.00000000000     0.00000000000 0.00000000000 0.00000000000 0.00000100000  12.79703  12.21363  -2.00000
         545631.69        2551492.46     0.00000000000     0.00000000000 0.00000000000 0.00000000000 0.00000100000  12.65695  11.99098  -2.00000
         545637.91        2551497.09     0.00053023631    -0.00070499335 0.00000441069 0.00000032052 0.00000644564  12.14763  12.21266   2.00000
         545651.79        2551507.17     0.02722225100    -0.03853377287 0.00023589736 0.00000633845 0.00079101799  10.92653  12.21266   2.00000
         545668.18        2551518.50     0.06095465392    -0.09192636297 0.00055149627 0.00001198370 0.00228502339   9.78098  12.21266   2.00000
         545686.00        2551530.21     0.07295981649    -0.11634135102 0.00068663025 0.00001412454 0.00300488489   9.34655  12.21266   2.00000
         545703.59        2551541.26     0.05071130984    -0.08458283838 0.00049309971 0.00001101884 0.00198680539   9.97677  12.21266   2.00000
         545718.75        2551550.52     0.01301306911    -0.02214875570 0.00012844331 0.00000401772 0.00037046896  11.39744  12.21266   2.00000
         545728.07        2551556.71     0.00000000000     0.00000000000 0.00000000000 0.00000000000 0.00000100000  12.47246  11.99098  -2.00000
         545730.71        2551558.85     0.00000000000     0.00000000000 0.00000000000 0.00000000000 0.00000100000  12.75770  12.21266  -2.00000
         545639.53        2551464.94     0.00000000000     0.00000000000 0.00000000000 0.00000000000 0.00000100000  12.71943  12.21168  -2.00000
         545645.28        2551469.31     0.00000000000     0.00000000000 0.00000000000 0.00000000000 0.00000100000  12.25139  11.99098  -2.00000
         545658.47        2551478.88     0.01989466327    -0.02875952308 0.00017485049 0.00000465539 0.00059191796  11.09423  12.21168   2.00000
         545674.65        2551489.76     0.04858289577    -0.07648493085 0.00045305193 0.00000950734 0.00194382641   9.92952  12.21168   2.00000
         545692.68        2551501.10     0.06506736572    -0.10930475313 0.00063602851 0.00001226175 0.00296998321   9.26831  12.21168   2.00000
         545710.77        2551511.91     0.05364603302    -0.09475094822 0.00054441800 0.00001091178 0.00244539822   9.59238  12.21168   2.00000
         545726.71        2551521.08     0.02006300839    -0.03664420882 0.00020888527 0.00000531967 0.00073905975  10.93477  12.21168   2.00000
         545737.91        2551527.59     0.00000000000     0.00000000000 0.00000000000 0.00000000000 0.00000100000  12.27906  11.99098  -2.00000
         545741.98        2551530.06     0.00000000000     0.00000000000 0.00000000000 0.00000000000 0.00000100000  12.79064  12.21168  -2.00000
         545647.14        2551437.37     0.00000000000     0.00000000000 0.00000000000 0.00000000000 0.00000100000  12.79119  12.21070  -2.00000
         545652.39        2551441.48     0.00000000000     0.00000000000 0.00000000000 0.00000000000 0.00000100000  12.33679  11.99098  -2.00000
         545664.92        2551450.55     0.01545788172    -0.02307131493 0.00013885529 0.00000383190 0.00045373078  11.24995  12.21070   2.00000
         545681.07        2551460.99     0.03979371916    -0.06613349260 0.00038591381 0.00000824806 0.00162587103  10.14263  12.21070   2.00000
         545699.54        2551472.03     0.05761652799    -0.10270653579 0.00058881865 0.00001132313 0.00275650189   9.37155  12.21070   2.00000
         545718.39        2551482.65     0.05454300687    -0.10242952508 0.00058023156 0.00001119906 0.00270635892   9.40266  12.21070   2.00000
         545735.35        2551491.80     0.02581567883    -0.05050466649 0.00028360053 0.00000654661 0.00110653787  10.56926  12.21070   2.00000
         545748.36        2551498.63     0.00052961265    -0.00107132041 0.00000597540 0.00000036207 0.00000985087  12.11993  12.21070   2.00000
         545753.64        2551501.38     0.00000000000     0.00000000000 0.00000000000 0.00000000000 0.00000100000  12.83133  11.99098  -2.00000
         545654.66        2551409.76     0.00000000000     0.00000000000 0.00000000000 0.00000000000 0.00000100000  12.71412  12.20973  -2.00000
         545659.16        2551413.58     0.00000000000     0.00000000000 0.00000000000 0.00000000000 0.00000100000  12.33911  11.99098  -2.00000
         545670.93        2551422.14     0.01223180374    -0.01925304670 0.00011405008 0.00000330448 0.00035515956  11.38041  12.20973   2.00000
         545687.33        2551432.20     0.03363731843    -0.05964117677 0.00034236453 0.00000753597 0.00140066205  10.31836  12.20973   2.00000
         545706.50        2551442.97     0.05061190247    -0.09618596851 0.00054344514 0.00001065702 0.00249489128   9.53499  12.20973   2.00000
         545726.30        2551453.46     0.05257852800    -0.10508578530 0.00058752709 0.00001129898 0.00275029098   9.37386  12.20973   2.00000
         545744.40        2551462.62     0.03073737671    -0.06405338452 0.00035523310 0.00000774743 0.00146673654  10.26528  12.20973   2.00000
         545758.90        2551469.68     0.00242386463    -0.00526492148 0.00002898039 0.00000118269 0.00006485765  11.91292  12.20973   2.00000
         545765.05        2551472.62     0.00000000000     0.00000000000 0.00000000000 0.00000000000 0.00000100000  12.81303  11.99098  -2.00000
         545660.70        2551381.90     0.00000000000     0.00000000000 0.00000000000 0.00000000000 0.00000100000  12.63799  12.20875  -2.00000
         545664.77        2551385.47     0.00000000000     0.00000000000 0.00000000000 0.00000000000 0.00000100000  12.34804  11.99098  -2.00000
         545676.33        2551393.61     0.00946517630    -0.01615135321 0.00009360232 0.00000281284 0.00028123131  11.48437  12.20875   2.00000
         545693.36        2551403.37     0.02805322433    -0.05344265328 0.00030179051 0.00000676783 0.00121198874  10.46577  12.20875   2.00000
         545713.46        2551413.93     0.04340842119    -0.08811687905 0.00049114344 0.00000975152 0.00222708726   9.69731  12.20875   2.00000
         545734.33        2551424.31     0.04920228246    -0.10457320559 0.00057784988 0.00001101606 0.00272876503   9.37162  12.20875   2.00000
         545753.59        2551433.48     0.03415872445    -0.07546927850 0.00041419893 0.00000858172 0.00180001810   9.99860  12.20875   2.00000
         545769.25        2551440.65     0.00452194621    -0.01038769348 0.00005664631 0.00000193002 0.00015055407  11.71173  12.20875   2.00000
         545775.98        2551443.66     0.00000000000     0.00000000000 0.00000000000 0.00000000000 0.00000100000  12.79578  11.99098  -2.00000
         545664.10        2551353.58     0.00000000000     0.00000000000 0.00000000000 0.00000000000 0.00000100000  12.58478  12.20777  -2.00000
         545668.64        2551357.05     0.00000000000     0.00000000000 0.00000000000 0.00000000000 0.00000100000  12.32267  11.99098  -2.00000
         545681.12        2551364.96     0.00844599683    -0.01577374688 0.00008946311 0.00000266663 0.00027102556  11.49379  12.20777   2.00000
         545699.13        2551374.50     0.02371775595    -0.04863123546 0.00027053322 0.00000611486 0.00107802672  10.57048  12.20777   2.00000
         545720.32        2551384.89     0.03681201504    -0.07979884868 0.00043940245 0.00000879759 0.00197594236   9.85211  12.20777   2.00000
         545742.35        2551395.17     0.04566977602    -0.10308374040 0.00056373720 0.00001060529 0.00269769983   9.36806  12.20777   2.00000
         545762.72        2551404.32     0.03520962439    -0.08225704035 0.00044737954 0.00000891710 0.00202086466   9.82011  12.20777   2.00000
         545779.43        2551411.55     0.00566371353    -0.01372818941 0.00007425309 0.00000231882 0.00021490309  11.58692  12.20777   2.00000
         545786.66        2551414.61     0.00000000000     0.00000000000 0.00000000000 0.00000000000 0.00000100000  12.77944  11.99098  -2.00000
         545666.31        2551325.06     0.00000000000     0.00000000000 0.00000000000 0.00000000000 0.00000100000  12.54970  12.20680  -2.00000
         545671.66        2551328.48     0.00000000000     0.00000000000 0.00000000000 0.00000000000 0.00000100000  12.26235  11.99098  -2.00000
         545685.51        2551336.24     0.00810663157    -0.01651883866 0.00009200401 0.00000263953 0.00028951266  11.45454  12.20680   2.00000
         545704.64        2551345.60     0.02008872385    -0.04427410882 0.00024309224 0.00000547006 0.00097310534  10.64779  12.20680   2.00000
         545727.01        2551355.84     0.03114937894    -0.07201614298 0.00039232029 0.00000783232 0.00176939091   9.97449  12.20680   2.00000
         545750.22        2551366.01     0.04172124384    -0.09987596530 0.00054119937 0.00000996954 0.00264485987   9.36532  12.20680   2.00000
         545771.66        2551375.10     0.03521356643    -0.08680201193 0.00046836375 0.00000894532 0.00220780893   9.65726  12.20680   2.00000
         545789.21        2551382.31     0.00659666840    -0.01672693892 0.00008990363 0.00000259421 0.00028130116  11.46746  12.20680   2.00000
         545796.79        2551385.37     0.00000000000     0.00000000000 0.00000000000 0.00000000000 0.00000100000  12.76356  11.99098  -2.00000
         545668.46        2551296.53     0.00000000000     0.00000000000 0.00000000000 0.00000000000 0.00000100000  12.57543  12.20582  -2.00000
         545674.51        2551299.88     0.00000000000     0.00000000000 0.00000000000 0.00000000000 0.00000100000  12.25530  11.99098  -2.00000
         545689.61        2551307.48     0.00717798032    -0.01589387835 0.00008719787 0.00000247762 0.00027708616  11.46637  12.20582   2.00000
         545709.91        2551316.67     0.01689639217    -0.03993776250 0.00021682440 0.00000490601 0.00086326678  10.74157  12.20582   2.00000
         545733.48        2551326.76     0.02700437453    -0.06648887998 0.00035881775 0.00000715812 0.00161956749  10.06936  12.20582   2.00000
         545757.86        2551336.81     0.03844877671    -0.09753666981 0.00052420678 0.00000951190 0.00260076924   9.36680  12.20582   2.00000
         545780.34        2551345.82     0.03433703489    -0.08932049939 0.00047846586 0.00000888238 0.00232034954   9.55470  12.20582   2.00000
         545798.56        2551352.93     0.00698089337    -0.01859227446 0.00009929823 0.00000273124 0.00032579287  11.39068  12.20582   2.00000
         545806.36        2551355.93     0.00000000000     0.00000000000 0.00000000000 0.00000000000 0.00000100000  12.75239  11.99098  -2.00000
         545670.55        2551268.00     0.00000000000     0.00000000000 0.00000000000 0.00000000000 0.00000100000  12.70183  12.20484  -2.00000
         545677.20        2551271.26     0.00000000000     0.00000000000 0.00000000000 0.00000000000 0.00000100000  12.36664  11.99098  -2.00000
         545693.47        2551278.69     0.00549573704    -0.01315883961 0.00007130185 0.00000214248 0.00021446438  11.57255  12.20484   2.00000
         545714.91        2551287.70     0.01505834479    -0.03807723422 0.00020473333 0.00000472578 0.00079909475  10.81011  12.20484   2.00000
         545739.68        2551297.64     0.02562161020    -0.06707920271 0.00035902946 0.00000720153 0.00161171067  10.07938  12.20484   2.00000
         545765.24        2551307.56     0.03611764332    -0.09702205155 0.00051763313 0.00000947525 0.00254577836   9.40828  12.20484   2.00000
         545788.78        2551316.48     0.03193857273    -0.08772386726 0.00046678552 0.00000876826 0.00223722022   9.61696  12.20484   2.00000
         545807.80        2551323.53     0.00644244738    -0.01808892825 0.00009600969 0.00000267808 0.00031066080  11.41447  12.20484   2.00000
         545815.91        2551326.49     0.00000000000     0.00000000000 0.00000000000 0.00000000000 0.00000100000  12.75939  11.99098  -2.00000
         545672.64        2551239.47     0.00000000000     0.00000000000 0.00000000000 0.00000000000 0.00000100000  12.86676  12.20387  -2.00000
         545679.80        2551242.63     0.00000000000     0.00000000000 0.00000000000 0.00000000000 0.00000100000  12.52431  11.99098  -2.00000
         545697.09        2551249.88     0.00389507919    -0.01003907574 0.00005384113 0.00000175096 0.00014991781  11.69620  12.20387   2.00000
         545719.62        2551258.70     0.01357261352    -0.03662686500 0.00019530380 0.00000460217 0.00074677264  10.86947  12.20387   2.00000
         545745.55        2551268.46     0.02468631003    -0.06860691898 0.00036456560 0.00000734948 0.00162833901  10.07284  12.20387   2.00000
         545772.28        2551278.25     0.03441950991    -0.09778912978 0.00051834873 0.00000956949 0.00252769331   9.42910  12.20387   2.00000