 TITLE = "SZ_2D"
 VARIABLES = "X", "Y", "CN","I","J","MNK"
 ZONE I=         242   J=           9
       545604.06250     2551880.75000   0.000    1    1
            0.00000
       545597.50000     2551862.50000   0.000    2    1
            0.00000
       545586.25000     2551825.50000   0.000    3    1
            0.00000
       545579.81250     2551787.75000   0.000    4    1
            0.00000
       545580.31250     2551749.50000   0.000    5    1
            0.00000
       545584.62500     2551716.25000   0.000    6    1
            0.00000
       545588.56250     2551687.75000   0.000    7    1
            0.00000
       545592.87500     2551659.50000   0.000    8    1
            0.00000
       545598.00000     2551631.50000   0.000    9    1
            0.00000
       545603.43750     2551603.25000   0.000   10    1
            0.00000
       545609.56250     2551575.25000   0.000   11    1
            0.00000
       545616.43750     2551547.50000   0.000   12    1
            0.00000
       545623.81250     2551520.00000   0.000   13    1
            0.00000
       545631.68750     2551492.50000   0.000   14    1
            0.00000
       545639.50000     2551465.00000   0.000   15    1
            0.00000
       545647.12500     2551437.25000   0.000   16    1
            0.00000
       545654.68750     2551409.75000   0.000   17    1
            0.00000
       545660.68750     2551382.00000   0.000   18    1
            0.00000
       545664.12500     2551353.50000   0.000   19    1
            0.00000
       545666.31250     2551325.00000   0.000   20    1
            0.00000
       545668.43750     2551296.50000   0.000   21    1
            0.00000
       545670.56250     2551268.00000   0.000   22    1
            0.00000
       545672.62500     2551239.50000   0.000   23    1
            0.00000
       545674.75000     2551211.00000   0.000   24    1
            0.00000
       545676.81250     2551182.50000   0.000   25    1
            0.00000
       545678.56250     2551153.75000   0.000   26    1
            0.00000
       545679.81250     2551125.25000   0.000   27    1
            0.00000
       545681.00000     2551096.75000   0.000   28    1
            0.00000
       545682.12500     2551068.00000   0.000   29    1
            0.00000
       545682.75000     2551039.50000   0.000   30    1
            0.00000
       545682.81250     2551011.00000   0.000   31    1
            0.00000
       545682.87500     2550982.25000   0.000   32    1
            0.00000
       545683.00000     2550953.75000   0.000   33    1
            0.00000
       545683.25000     2550925.00000   0.000   34    1
            0.00000
       545683.56250     2550896.50000   0.000   35    1
            0.00000
       545683.81250     2550867.75000   0.000   36    1
            0.00000
       545680.62500     2550840.75000   0.000   37    1
            0.00000
       545673.87500     2550815.50000   0.000   38    1
            0.00000
       545667.06250     2550790.00000   0.000   39    1
            0.00000
       545660.31250     2550764.50000   0.000   40    1
            0.00000
       545653.56250     2550739.25000   0.000   41    1
            0.00000
       545646.75000     2550713.75000   0.000   42    1
            0.00000
       545640.00000     2550688.50000   0.000   43    1
            0.00000
       545633.12500     2550663.00000   0.000   44    1
            0.00000
       545626.06250     2550637.75000   0.000   45    1
            0.00000
       545619.00000     2550612.50000   0.000   46    1
            0.00000
       545611.93750     2550587.00000   0.000   47    1
            0.00000
       545604.31250     2550562.00000   0.000   48    1
            0.00000
       545595.31250     2550537.25000   0.000   49    1
            0.00000
       545585.50000     2550513.00000   0.000   50    1
            0.00000
       545575.62500     2550488.50000   0.000   51    1
            0.00000
       545565.81250     2550464.00000   0.000   52    1
            0.00000
       545556.12500     2550439.75000   0.000   53    1
            0.00000
       545546.56250     2550415.25000   0.000   54    1
            0.00000
       545536.93750     2550390.75000   0.000   55    1
            0.00000
       545527.37500     2550366.25000   0.000   56    1
            0.00000
       545515.81250     2550342.75000   0.000   57    1
            0.00000
       545501.81250     2550320.50000   0.000   58    1
            0.00000
       545487.43750     2550298.50000   0.000   59    1
            0.00000
       545473.00000     2550276.50000   0.000   60    1
            0.00000
       545457.00000     2550256.00000   0.000   61    1
            0.00000
       545438.93750     2550236.75000   0.000   62    1
            0.00000
       545420.31250     2550218.00000   0.000   63    1
            0.00000
       545401.18750     2550199.25000   0.000   64    1
            0.00000
       545381.06250     2550181.75000   0.000   65    1
            0.00000
       545360.12500     2550165.25000   0.000   66    1
            0.00000
       545339.18750     2550148.50000   0.000   67    1
            0.00000
       545318.12500     2550132.00000   0.000   68    1
            0.00000
       545296.25000     2550116.75000   0.000   69    1
            0.00000
       545273.62500     2550102.50000   0.000   70    1
            0.00000
       545251.00000     2550088.25000   0.000   71    1
            0.00000
       545228.06250     2550074.50000   0.000   72    1
            0.00000
       545204.43750     2550062.25000   0.000   73    1
            0.00000
       545180.37500     2550050.50000   0.000   74    1
            0.00000
       545156.43750     2550038.50000   0.000   75    1
            0.00000
       545132.81250     2550026.25000   0.000   76    1
            0.00000
       545109.43750     2550013.25000   0.000   77    1
            0.00000
       545086.06250     2550000.25000   0.000   78    1
            0.00000
       545062.68750     2549987.25000   0.000   79    1
            0.00000
       545038.93750     2549975.00000   0.000   80    1
            0.00000
       545014.18750     2549965.00000   0.000   81    1
            0.00000
       544988.93750     2549956.25000   0.000   82    1
            0.00000
       544963.81250     2549947.25000   0.000   83    1
            0.00000
       544938.93750     2549937.50000   0.000   84    1
            0.00000
       544914.25000     2549927.25000   0.000   85    1
            0.00000
       544889.50000     2549917.00000   0.000   86    1
            0.00000
       544864.75000     2549907.00000   0.000   87    1
            0.00000
       544839.87500     2549897.25000   0.000   88    1
            0.00000
       544815.18750     2549887.50000   0.000   89    1
            0.00000
       544790.75000     2549877.75000   0.000   90    1
            0.00000
       544766.06250     2549868.75000   0.000   91    1
            0.00000
       544741.31250     2549859.75000   0.000   92    1
            0.00000
       544716.50000     2549851.00000   0.000   93    1
            0.00000
       544691.93750     2549841.75000   0.000   94    1
            0.00000
       544668.12500     2549830.75000   0.000   95    1
            0.00000
       544644.81250     2549818.50000   0.000   96    1
            0.00000
       544621.43750     2549806.50000   0.000   97    1
            0.00000
       544598.06250     2549794.25000   0.000   98    1
            0.00000
       544574.43750     2549782.75000   0.000   99    1
            0.00000
       544550.50000     2549772.00000   0.000  100    1
            0.00000
       544526.43750     2549761.25000   0.000  101    1
            0.00000
       544502.43750     2549750.50000   0.000  102    1
            0.00000
       544478.37500     2549740.00000   0.000  103    1
            0.00000
       544454.31250     2549729.25000   0.000  104    1
            0.00000
       544430.31250     2549718.50000   0.000  105    1
            0.00000
       544407.56250     2549715.00000   0.000  106    1
            0.00000
       544387.43750     2549726.25000   0.000  107    1
            0.00000
       544368.62500     2549744.50000   0.000  108    1
            0.00000
       544349.81250     2549763.00000   0.000  109    1
            0.00000
       544331.00000     2549781.25000   0.000  110    1
            0.00000
       544312.18750     2549799.75000   0.000  111    1
            0.00000
       544293.31250     2549818.00000   0.000  112    1
            0.00000
       544274.50000     2549836.50000   0.000  113    1
            0.00000
       544255.68750     2549854.75000   0.000  114    1
            0.00000
       544236.87500     2549873.25000   0.000  115    1
            0.00000
       544220.06250     2549893.00000   0.000  116    1
            0.00000
       544207.37500     2549915.50000   0.000  117    1
            0.00000
       544196.87500     2549939.75000   0.000  118    1
            0.00000
       544186.37500     2549963.75000   0.000  119    1
            0.00000
       544175.81250     2549988.00000   0.000  120    1
            0.00000
       544163.68750     2550011.25000   0.000  121    1
            0.00000
       544150.00000     2550033.75000   0.000  122    1
            0.00000
       544136.37500     2550056.25000   0.000  123    1
            0.00000
       544122.68750     2550078.50000   0.000  124    1
            0.00000
       544109.06250     2550101.00000   0.000  125    1
            0.00000
       544095.37500     2550123.50000   0.000  126    1
            0.00000
       544081.75000     2550146.00000   0.000  127    1
            0.00000
       544068.12500     2550168.50000   0.000  128    1
            0.00000
       544054.68750     2550191.25000   0.000  129    1
            0.00000
       544041.87500     2550214.25000   0.000  130    1
            0.00000
       544029.43750     2550237.25000   0.000  131    1
            0.00000
       544017.06250     2550260.50000   0.000  132    1
            0.00000
       544003.62500     2550285.50000   0.000  133    1
            0.00000
       543989.25000     2550312.00000   0.000  134    1
            0.00000
       543974.87500     2550338.75000   0.000  135    1
            0.00000
       543960.50000     2550365.25000   0.000  136    1
            0.00000
       543946.12500     2550391.75000   0.000  137    1
            0.00000
       543933.62500     2550419.25000   0.000  138    1
            0.00000
       543924.81250     2550448.00000   0.000  139    1
            0.00000
       543917.87500     2550477.25000   0.000  140    1
            0.00000
       543910.93750     2550506.75000   0.000  141    1
            0.00000
       543904.00000     2550536.25000   0.000  142    1
            0.00000
       543897.06250     2550565.50000   0.000  143    1
            0.00000
       543890.12500     2550595.00000   0.000  144    1
            0.00000
       543883.18750     2550624.50000   0.000  145    1
            0.00000
       543877.93750     2550654.25000   0.000  146    1
            0.00000
       543875.37500     2550684.25000   0.000  147    1
            0.00000
       543873.75000     2550714.50000   0.000  148    1
            0.00000
       543872.12500     2550744.50000   0.000  149    1
            0.00000
       543870.50000     2550774.75000   0.000  150    1
            0.00000
       543868.87500     2550805.00000   0.000  151    1
            0.00000
       543867.25000     2550835.25000   0.000  152    1
            0.00000
       543860.56250     2550863.25000   0.000  153    1
            0.00000
       543844.75000     2550887.75000   0.000  154    1
            0.00000
       543824.68750     2550910.50000   0.000  155    1
            0.00000
       543804.68750     2550933.00000   0.000  156    1
            0.00000
       543784.68750     2550955.75000   0.000  157    1
            0.00000
       543765.56250     2550979.00000   0.000  158    1
            0.00000
       543750.62500     2551004.75000   0.000  159    1
            0.00000
       543739.00000     2551032.75000   0.000  160    1
            0.00000
       543727.37500     2551060.75000   0.000  161    1
            0.00000
       543715.81250     2551088.50000   0.000  162    1
            0.00000
       543704.18750     2551116.50000   0.000  163    1
            0.00000
       543693.93750     2551141.25000   0.000  164    1
            0.00000
       543685.06250     2551162.50000   0.000  165    1
            0.00000
       543678.18750     2551184.50000   0.000  166    1
            0.00000
       543674.12500     2551207.25000   0.000  167    1
            0.00000
       543670.81250     2551230.25000   0.000  168    1
            0.00000
       543667.50000     2551253.25000   0.000  169    1
            0.00000
       543664.12500     2551276.00000   0.000  170    1
            0.00000
       543660.81250     2551299.00000   0.000  171    1
            0.00000
       543657.43750     2551322.00000   0.000  172    1
            0.00000
       543654.12500     2551345.00000   0.000  173    1
            0.00000
       543652.06250     2551368.00000   0.000  174    1
            0.00000
       543651.31250     2551391.25000   0.000  175    1
            0.00000
       543650.56250     2551414.25000   0.000  176    1
            0.00000
       543649.81250     2551437.50000   0.000  177    1
            0.00000
       543649.06250     2551460.75000   0.000  178    1
            0.00000
       543648.37500     2551484.00000   0.000  179    1
            0.00000
       543647.62500     2551507.00000   0.000  180    1
            0.00000
       543646.81250     2551530.25000   0.000  181    1
            0.00000
       543645.87500     2551553.50000   0.000  182    1
            0.00000
       543644.81250     2551576.50000   0.000  183    1
            0.00000
       543643.75000     2551599.75000   0.000  184    1
            0.00000
       543642.62500     2551623.00000   0.000  185    1
            0.00000
       543644.31250     2551645.75000   0.000  186    1
            0.00000
       543649.00000     2551668.50000   0.000  187    1
            0.00000
       543654.00000     2551691.00000   0.000  188    1
            0.00000
       543659.00000     2551713.75000   0.000  189    1
            0.00000
       543664.12500     2551736.25000   0.000  190    1
            0.00000
       543670.43750     2551758.75000   0.000  191    1
            0.00000
       543677.68750     2551780.75000   0.000  192    1
            0.00000
       543684.93750     2551802.75000   0.000  193    1
            0.00000
       543692.18750     2551824.75000   0.000  194    1
            0.00000
       543699.43750     2551846.75000   0.000  195    1
            0.00000
       543707.25000     2551868.50000   0.000  196    1
            0.00000
       543719.75000     2551887.25000   0.000  197    1
            0.00000
       543736.43750     2551903.25000   0.000  198    1
            0.00000
       543753.12500     2551919.25000   0.000  199    1
            0.00000
       543769.93750     2551935.25000   0.000  200    1
            0.00000
       543789.81250     2551945.00000   0.000  201    1
            0.00000
       543812.68750     2551949.00000   0.000  202    1
            0.00000
       543835.50000     2551953.00000   0.000  203    1
            0.00000
       543858.31250     2551957.00000   0.000  204    1
            0.00000
       543881.18750     2551961.00000   0.000  205    1
            0.00000
       543904.12500     2551961.75000   0.000  206    1
            0.00000
       543927.25000     2551959.75000   0.000  207    1
            0.00000
       543954.62500     2551957.50000   0.000  208    1
            0.00000
       543985.93750     2551953.50000   0.000  209    1
            0.00000
       544016.87500     2551947.00000   0.000  210    1
            0.00000
       544047.56250     2551939.00000   0.000  211    1
            0.00000
       544078.18750     2551931.00000   0.000  212    1
            0.00000
       544108.81250     2551922.75000   0.000  213    1
            0.00000
       544139.43750     2551914.50000   0.000  214    1
            0.00000
       544170.06250     2551906.50000   0.000  215    1
            0.00000
       544200.75000     2551898.50000   0.000  216    1
            0.00000
       544231.43750     2551890.75000   0.000  217    1
            0.00000
       544262.18750     2551883.00000   0.000  218    1
            0.00000
       544292.87500     2551875.00000   0.000  219    1
            0.00000
       544323.81250     2551873.75000   0.000  220    1
            0.00000
       544355.00000     2551879.00000   0.000  221    1
            0.00000
       544386.18750     2551884.50000   0.000  222    1
            0.00000
       544417.31250     2551890.50000   0.000  223    1
            0.00000
       544448.25000     2551897.50000   0.000  224    1
            0.00000
       544479.06250     2551905.00000   0.000  225    1
            0.00000
       544509.81250     2551912.50000   0.000  226    1
            0.00000
       544540.06250     2551921.75000   0.000  227    1
            0.00000
       544569.93750     2551932.50000   0.000  228    1
            0.00000
       544599.75000     2551943.00000   0.000  229    1
            0.00000
       544629.56250     2551953.75000   0.000  230    1
            0.00000
       544659.18750     2551965.00000   0.000  231    1
            0.00000
       544688.68750     2551976.75000   0.000  232    1
            0.00000
       544718.18750     2551988.25000   0.000  233    1
            0.00000
       544744.00000     2551999.00000   0.000  234    1
            0.00000
       544766.18750     2552008.50000   0.000  235    1
            0.00000
       544788.31250     2552018.00000   0.000  236    1
            0.00000
       544810.50000     2552027.50000   0.000  237    1
            0.00000
       544832.68750     2552037.00000   0.000  238    1
            0.00000
       544854.81250     2552046.50000   0.000  239    1
            0.00000
       544877.00000     2552056.25000   0.000  240    1
            0.00000
       544899.18750     2552065.75000   0.000  241    1
            0.00000
       544910.25000     2552070.50000   0.000  242    1
            0.00000
       545610.62500     2551879.50000   0.000    1    2
            0.00000
       545605.18750     2551861.50000   0.046    2    2
            0.00000
       545595.81250     2551825.00000   0.045    3    2
            0.00000
       545590.37500     2551788.75000   0.046    4    2
            0.00000
       545590.37500     2551752.75000   0.047    5    2
            0.00000
       545593.37500     2551721.00000   0.047    6    2
            0.00000
       545596.75000     2551693.00000   0.048    7    2
            0.00000
       545600.75000     2551664.75000   0.049    8    2
            0.00000
       545605.50000     2551636.75000   0.049    9    2
            0.00000
       545610.81250     2551608.75000   0.049   10    2
            0.00000
       545616.81250     2551580.75000   0.050   11    2
            0.00000
       545623.43750     2551552.75000   0.051   12    2
            0.00000
       545630.50000     2551524.75000   0.052   13    2
            0.00000
       545637.93750     2551497.00000   0.054   14    2
            0.00000
       545645.25000     2551469.25000   0.057   15    2
            0.00000
       545652.37500     2551441.50000   0.057   16    2
            0.00000
       545659.18750     2551413.50000   0.057   17    2
            0.00000
       545664.75000     2551385.50000   0.057   18    2
            0.00000
       545668.62500     2551357.00000   0.057   19    2
            0.00000
       545671.68750     2551328.50000   0.056   20    2
            0.00000
       545674.50000     2551300.00000   0.056   21    2
            0.00000
       545677.18750     2551271.25000   0.057   22    2
            0.00000
       545679.81250     2551242.75000   0.057   23    2
            0.00000
       545682.31250     2551214.00000   0.058   24    2
            0.00000
       545684.68750     2551185.25000   0.058   25    2
            0.00000
       545686.68750     2551156.75000   0.059   26    2
            0.00000
       545688.31250     2551128.00000   0.060   27    2
            0.00000
       545689.75000     2551099.25000   0.060   28    2
            0.00000
       545691.00000     2551070.50000   0.060   29    2
            0.00000
       545691.81250     2551041.50000   0.060   30    2
            0.00000
       545692.25000     2551012.75000   0.060   31    2
            0.00000
       545692.62500     2550983.75000   0.060   32    2
            0.00000
       545693.00000     2550955.00000   0.060   33    2
            0.00000
       545693.50000     2550926.25000   0.060   34    2
            0.00000
       545693.93750     2550897.75000   0.061   35    2
            0.00000
       545694.18750     2550869.50000   0.061   36    2
            0.00000
       545691.68750     2550843.50000   0.060   37    2
            0.00000
       545686.25000     2550818.50000   0.061   38    2
            0.00000
       545680.25000     2550793.25000   0.061   39    2
            0.00000
       545674.00000     2550767.50000   0.061   40    2
            0.00000
       545667.56250     2550741.50000   0.061   41    2
            0.00000
       545661.00000     2550715.50000   0.061   42    2
            0.00000
       545654.31250     2550689.50000   0.060   43    2
            0.00000
       545647.50000     2550663.75000   0.060   44    2
            0.00000
       545640.43750     2550637.75000   0.060   45    2
            0.00000
       545633.25000     2550612.00000   0.059   46    2
            0.00000
       545625.87500     2550586.50000   0.058   47    2
            0.00000
       545617.93750     2550561.00000   0.058   48    2
            0.00000
       545608.75000     2550536.25000   0.057   49    2
            0.00000
       545598.75000     2550511.50000   0.057   50    2
            0.00000
       545588.68750     2550486.75000   0.057   51    2
            0.00000
       545578.50000     2550462.25000   0.057   52    2
            0.00000
       545568.43750     2550437.50000   0.057   53    2
            0.00000
       545558.31250     2550413.00000   0.056   54    2
            0.00000
       545548.06250     2550388.25000   0.056   55    2
            0.00000
       545537.50000     2550364.00000   0.056   56    2
            0.00000
       545525.37500     2550340.25000   0.056   57    2
            0.00000
       545511.31250     2550317.75000   0.056   58    2
            0.00000
       545496.68750     2550295.25000   0.056   59    2
            0.00000
       545481.75000     2550273.25000   0.056   60    2
            0.00000
       545465.56250     2550252.25000   0.056   61    2
            0.00000
       545448.00000     2550232.75000   0.057   62    2
            0.00000
       545430.18750     2550214.00000   0.056   63    2
            0.00000
       545411.75000     2550195.75000   0.056   64    2
            0.00000
       545391.87500     2550178.25000   0.055   65    2
            0.00000
       545371.12500     2550161.00000   0.055   66    2
            0.00000
       545350.00000     2550144.00000   0.055   67    2
            0.00000
       545328.56250     2550127.50000   0.055   68    2
            0.00000
       545306.37500     2550111.75000   0.054   69    2
            0.00000
       545283.56250     2550096.75000   0.054   70    2
            0.00000
       545260.62500     2550082.25000   0.054   71    2
            0.00000
       545237.31250     2550068.25000   0.054   72    2
            0.00000
       545213.43750     2550055.50000   0.054   73    2
            0.00000
       545189.25000     2550043.00000   0.054   74    2
            0.00000
       545165.06250     2550030.75000   0.055   75    2
            0.00000
       545141.06250     2550018.00000   0.055   76    2
            0.00000
       545117.31250     2550005.00000   0.055   77    2
            0.00000
       545093.50000     2549992.00000   0.056   78    2
            0.00000
       545069.62500     2549979.25000   0.056   79    2
            0.00000
       545045.31250     2549967.25000   0.056   80    2
            0.00000
       545020.31250     2549956.75000   0.056   81    2
            0.00000
       544994.87500     2549947.25000   0.055   82    2
            0.00000
       544969.43750     2549937.50000   0.055   83    2
            0.00000
       544944.12500     2549927.25000   0.057   84    2
            0.00000
       544919.00000     2549916.75000   0.058   85    2
            0.00000
       544893.93750     2549906.25000   0.059   86    2
            0.00000
       544869.00000     2549895.75000   0.060   87    2
            0.00000
       544844.31250     2549885.75000   0.061   88    2
            0.00000
       544820.50000     2549876.00000   0.061   89    2
            0.00000
       544796.68750     2549866.75000   0.061   90    2
            0.00000
       544772.00000     2549857.50000   0.062   91    2
            0.00000
       544746.75000     2549848.25000   0.061   92    2
            0.00000
       544721.37500     2549839.00000   0.061   93    2
            0.00000
       544696.25000     2549829.00000   0.061   94    2
            0.00000
       544671.68750     2549817.50000   0.061   95    2
            0.00000
       544647.56250     2549805.25000   0.061   96    2
            0.00000
       544623.56250     2549793.00000   0.061   97    2
            0.00000
       544599.62500     2549780.75000   0.061   98    2
            0.00000
       544575.50000     2549769.25000   0.061   99    2
            0.00000
       544551.12500     2549758.25000   0.061  100    2
            0.00000
       544526.68750     2549747.75000   0.067  101    2
            0.00000
       544502.25000     2549737.25000   0.067  102    2
            0.00000
       544477.93750     2549727.25000   0.067  103    2
            0.00000
       544453.75000     2549717.50000   0.067  104    2
            0.00000
       544429.81250     2549709.25000   0.067  105    2
            0.00000
       544407.12500     2549707.25000   0.067  106    2
            0.00000
       544386.50000     2549717.00000   0.067  107    2
            0.00000
       544367.00000     2549733.25000   0.066  108    2
            0.00000
       544347.68750     2549750.50000   0.066  109    2
            0.00000
       544328.43750     2549768.50000   0.067  110    2
            0.00000
       544309.18750     2549786.50000   0.066  111    2
            0.00000
       544290.06250     2549805.00000   0.066  112    2
            0.00000
       544270.93750     2549823.50000   0.066  113    2
            0.00000
       544252.06250     2549842.25000   0.066  114    2
            0.00000
       544233.56250     2549861.00000   0.065  115    2
            0.00000
       544217.06250     2549881.50000   0.065  116    2
            0.00000
       544203.87500     2549904.00000   0.066  117    2
            0.00000
       544192.31250     2549928.00000   0.066  118    2
            0.00000
       544180.81250     2549952.25000   0.066  119    2
            0.00000
       544169.12500     2549976.50000   0.066  120    2
            0.00000
       544156.25000     2550000.00000   0.066  121    2
            0.00000
       544142.31250     2550023.00000   0.065  122    2
            0.00000
       544128.31250     2550046.00000   0.065  123    2
            0.00000
       544114.37500     2550069.00000   0.064  124    2
            0.00000
       544100.43750     2550091.75000   0.063  125    2
            0.00000
       544086.62500     2550115.00000   0.062  126    2
            0.00000
       544072.75000     2550138.00000   0.062  127    2
            0.00000
       544059.00000     2550161.00000   0.062  128    2
            0.00000
       544045.43750     2550184.50000   0.063  129    2
            0.00000
       544032.31250     2550208.00000   0.063  130    2
            0.00000
       544019.56250     2550231.50000   0.063  131    2
            0.00000
       544006.93750     2550255.00000   0.063  132    2
            0.00000
       543994.00000     2550279.25000   0.064  133    2
            0.00000
       543980.43750     2550304.50000   0.064  134    2
            0.00000
       543966.56250     2550331.00000   0.065  135    2
            0.00000
       543952.56250     2550357.50000   0.065  136    2
            0.00000
       543938.75000     2550384.50000   0.066  137    2
            0.00000
       543926.50000     2550412.25000   0.066  138    2
            0.00000
       543917.00000     2550440.75000   0.066  139    2
            0.00000
       543909.00000     2550470.00000   0.066  140    2
            0.00000
       543901.25000     2550499.25000   0.066  141    2
            0.00000
       543893.62500     2550528.50000   0.065  142    2
            0.00000
       543886.12500     2550557.75000   0.065  143    2
            0.00000
       543878.75000     2550587.00000   0.065  144    2
            0.00000
       543871.62500     2550616.25000   0.065  145    2
            0.00000
       543866.06250     2550645.75000   0.065  146    2
            0.00000
       543862.62500     2550675.50000   0.066  147    2
            0.00000
       543860.12500     2550705.50000   0.066  148    2
            0.00000
       543857.81250     2550735.50000   0.066  149    2
            0.00000
       543855.50000     2550765.25000   0.066  150    2
            0.00000
       543853.12500     2550795.25000   0.066  151    2
            0.00000